/software/modules/base
  DosageConvertor
  ROOT
  PCAngsd
/software/modules/bio
  KING
  EIGENSOFT
  Bowtie
  Seq-Gen
  Molgenis-Compute
  prodigal
  FR-HIT
  SPANDx
  arlecore
  GBSX
  SNAP
  picard
  TASSEL
  GATK
  GenotypeHarmonizer
  BayesAss
  BOLT-LMM
  EPACTS
  SAMtools
  SLiM
  AdmixTools
  MMM
  IMa2
  FASTX-Toolkit
  Stacks
  TrimGalore
  RAxML
  DIYABC
  DosageConvertor
  QIIME
  RepeatMasker
  kallisto
  PennCNV
  Trinity
  hisat2
  NgsRelate
  verifyBamID
  prokka
  FastQC
  RSEM
  CD-HIT
  ROHan
  PLAST
  SeqKit
  canu
  Pysam
  pplacer
  PeptideShaker
  FLASH
  GROMACS
  BWA
  fastStructure
  FALCON
  clearcut
  BioPerl
  TOGGLe
  MAFFT
  AUGUSTUS
  Trimmomatic
  Bowtie2
  fineRADstructure
  NGSadmix
  MaxQuant
  PIPITS
  RECON
  sratoolkit
  ABySS
  MultiQC
  GenomicConsensus
  BUSCO
  msmc
  MrBayes
  EMAN2
  angsd
  SHORE
  RepeatModeler
  MetaGeneAnnotator
  H-scan
  Jellyfish
  MIGRATE-N
  jModelTest
  FRANz
  Kraken
  BamTools
  RELION
  Annocript
  Roary
  breseq
  GroopM
  TopHat
  Kraken2
  paleomix
  LASTZ
  IMPUTE2
  PyCogent
  MCL
  BLAST+
  Bio++
  SOLAR-Eclipse
  DuplicationDetector
  SearchGUI
  TGICL
  psmc
  GCTA
  RepeatScout
  Cufflinks
  ADMIXTURE
  MUMmer
  BamM
  microbiomeutil
  CLUMPAK
  STAR
  MafFilter
  snpEff
  SUMATRA
  BLASR
  bcl2fastq2
  FastTree
  libpsortb
  QUAST
  BayesAss3_SNPs
  Beast
  libSBML
  FastME
  SPAdes
  RDP-Classifier
  EMBOSS
  MUSCLE
  IMa2p
  Metal
  fastsimcoal
  multiz-tba
  VCFtools
  Bismark
  IMa3
  SNPTEST
  crac
  PBSuite
  BBMap
  pftoolsV3
  ABCtoolbox
  QIIME2
  minimap2
  BayeScan
  HTSeq
  TRF
  CellRanger
  GTOOL
  fdstools
  cdbfasta
  MIRA
  ms
  NGS_DNA
  BLAST
  VirSorter
  Mothur
  PRANK
  cutadapt
  SortMeRNA
  OmegaPlus
  PRSice
  PSORTb
  ea-utils
  Structure
  BEDTools
  BCFtools
  SUMACLUST
  CrossTalkZ
  PLINK
  treemix
  TAFSCC
  ngsutils
  BayeScEnv
  io_lib
  RMBlast
  Exonerate
  MAKER
  PAML
  qctool
  HTSlib
  DIAL
  Commet
  KAT
  ctffind
  GMAP-GSNAP
  tabix
  libgtextutils
  arlsumstat
  HMMER
  QEDMOD
  PCAngsd
  DendroPy
  Biopython
/software/modules/cae
  OpenFOAM
/software/modules/chem
  COPASI
  libctl
  libxc
  QuantumESPRESSO
  RDKit
  ADF
  TINKER
  ORCA
  PLUMED
  NWChem
  Libint
  Molden
  DIRAC
  Gaussian
  OpenBabel
  AmberTools
  LAMMPS
  CP2K
  OpenMolcas
/software/modules/compiler
  ifort
  GCCcore
  icc
  LLVM
  GCC
  Go
  PGI
/software/modules/data
  Text-CSV
  TiMBL
  dask
  XML-LibXML
  LAME
  Log-Log4perl
  netCDF
  XML-Parser
  V-REP
  TiCCutils
  MariaDB
  GDAL
  DB_File
  netCDF-Fortran
  CDO
  FLAC
  SoX
  recode
  ROOT
  PyTables
  HDF5
  scikit-learn
  h5py
  cupy
  netCDF-C++
  pkgconfig
/software/modules/debugger
  Valgrind
  GDB
/software/modules/devel
  SWIG
  ZeroMQ
  bnd
  SQLite
  gflags
  Guile
  ncurses
  tensorflow
  requests
  DyNet
  xcb-util-renderutil
  xextproto
  icmake
  Caffe
  nose-parameterized
  CMake
  makedepend
  pkg-config
  Qt
  pybind11
  renderproto
  protobuf
  texinfo
  Gradle
  gsettings-desktop-schemas
  GConf
  LMDB
  intltool
  protobuf-python
  libSM
  PCRE
  ant
  PCRE2
  PyZMQ
  Automake
  xbitmaps
  wget
  mpmath
  Autoconf
  leveldb
  gperf
  xcb-util-wm
  xtrans
  M4
  XKeyboardConfig
  glproto
  Qt5
  LevelDB
  xcb-proto
  Maven
  Autotools
  fontsproto
  xf86vidmodeproto
  dbus-glib
  libxkbcommon
  xcb-util-image
  GObject-Introspection
  Bazel
  DBus
  LZO
  Doxygen
  xproto
  SCons
  Boost
  sparsehash
  Pygments
  xineramaproto
  PyTorch
  pkgconfig
  Spark
  xcb-util
  xorg-macros
  randrproto
  glog
  JUnit
  Mako
  xcb-util-keysyms
/software/modules/lang
  byacc
  Julia
  fpc
  Guile
  Ruby
  OCaml
  numba
  Cython
  Rust
  SIP
  R
  nodejs
  PyPy
  Java
  Anaconda2
  flex
  Miniconda2
  DMD
  Yasm
  Perl
  Mono
  V8
  OpenJDK
  Scala
  FriBidi
  Python
  SciPy-bundle
  Bison
  NASM
  Anaconda3
  Miniconda3
  PyPy3
  Tcl
  Tkinter
/software/modules/lib
  testpath
  tbb
  FTGL
  libunistring
  libsoup
  NCCL
  libfontenc
  libgeotiff
  libsndfile
  ICU
  libgd
  libreadline
  GlobalArrays
  psutil
  FoX
  libmatheval
  PLY
  pybind11
  gc
  Pyro4
  LMDB
  libarchive
  Boost.Python
  libdap
  libdrm
  ACTC
  TensorRT
  TensorFlow
  libepoxy
  snappy
  rpy2
  PortAudio
  libiodbc
  libtool
  MPJ-Express
  Blosc
  cget
  libjpeg-turbo
  libxml2
  DMTCP
  ChartDirector
  gensim
  NSPR
  libidn
  LibUUID
  CFITSIO
  zlib
  NSS
  libpng
  LibTIFF
  nettle
  libpthread-stubs
  libsodium
  libunwind
  alsa-lib
  PyYAML
  jemalloc
  libevent
  libyaml
  libgpuarray
  SDL2
  libxslt
  libxcb
  ConsensusCore
  SWI-Prolog
  GLM
  PROJ
  libharu
  libffi
  ICU4C
  libpsl
  MATIO
  freeglut
  libgtextutils
/software/modules/math
  Mplus
  Harminv
  scipy
  libcerf
  MPFR
  OBITools
  METIS
  StataSE
  GP2C
  GEOS
  numexpr
  sympy
  FIAT
  RepeatMasker
  MATLAB
  MLwiN
  protobuf-python
  PARI-GP
  Theano
  libxsmm
  lpsolve
  libcmaes
  OpenBUGS
  AIMMS
  Qhull
  GMP
  Gurobi
  magma
  SCOTCH
  Mathematica
  JAGS
  ScientificPython
  Dakota
  ParMETIS
  CPLEX
  ISL
  mshr
  numpy
  Eigen
/software/modules/mpi
  OpenMPI
  impi
/software/modules/numlib
  cuDNN
  ScaLAPACK
  tensorflow
  CLHEP
  SLEPc
  GSL
  NLopt
  Trilinos
  FFTW
  BLACS
  arpack-ng
  SuiteSparse
  OpenBLAS
  beagle-lib
  Armadillo
  Hypre
  CGAL
  imkl
  PETSc
/software/modules/perf
  IMB
  OSU-Micro-Benchmarks
/software/modules/phys
  BAGEL
  Geant4
  Meep
  UDUNITS
  siesta
  GRASP2K
  COMSOL
/software/modules/system
  libgcrypt
  libgpg-error
  CUDA
  hwloc
  libpciaccess
  geoclue
  eudev
  OpenPGM
  libwebp
/software/modules/toolchain
  fosscuda
  gcccuda
  foss
  intel
  gompic
  iimpi
  gompi
  iompi
  iccifort
/software/modules/tools
  pysqlite
  Molgenis-Compute
  DB
  EasyBuild
  wheel
  pytest
  cURL
  Meson
  Inspector
  patchelf
  dlib
  gzip
  Vim
  GLPK
  p7zip
  CheckM
  STUBL
  ecCodes
  NCO
  help2man
  parallel
  gperftools
  googletest
  Szip
  Singularity
  IOzone
  pip
  depad-utils
  groff
  expat
  XZ
  Pandoc
  IMB
  VTune
  util-linux
  IPython
  DMTCP
  itac
  tmux
  py
  TESS
  Mercurial
  hypothesis
  git
  QUAST
  numactl
  binutils
  IOR
  GlobusConnectPersonal
  Emacs
  Ninja
  bzip2
  gettext
  git-lfs
  Ghostscript
  ANTLR
  HPL
  Bonnie++
  networkx
/software/modules/vis
  fixesproto
  xprop
  Scipion
  DISLIN
  libXdamage
  compositeproto
  matplotlib
  wxPython
  GTK+
  FLTK
  x264
  cairo
  libXi
  wxBase
  VTK
  OpenPose
  GLib
  Tk
  X11
  HarfBuzz
  libXext
  Sphinx
  PIL
  GST-plugins-base
  kbproto
  GTS
  libXau
  at-spi2-atk
  libXpm
  libXdmcp
  WebKitGTK
  libXt
  libXft
  VMD
  libGLU
  Gdk-Pixbuf
  x265
  LittleCMS
  gnuplot
  Pillow
  Pango
  ParaView
  Cytoscape
  libXrender
  ATK
  libav
  libXScrnSaver
  OpenCV
  PyQt5
  scikit-image
  libXrandr
  libXinerama
  libXfont
  inputproto
  Mesa
  libXxf86vm
  GStreamer
  libXcomposite
  libXfixes
  pixman
  FFmpeg
  grace
  libX11
  libXcursor
  motif
  freetype
  FriBidi
  fontconfig
  PyQt
  gettext
  at-spi2-core
  Graphviz
  libICE
  GL2PS
  ImageMagick
  libXmu
  JasPer
